
Host: Ruhees-MacBook-Pro.local

Timers On : Mon Jan  7 23:18:14 2019
Timers Off: Mon Jan  7 23:18:15 2019

Wall Time:        1.02 seconds


-----------------------------------------------------------

***********************************************************

Host: Ruhees-MacBook-Pro.local

Timers On : Mon Jan  7 23:18:25 2019
Timers Off: Mon Jan  7 23:18:26 2019

Wall Time:        0.91 seconds

Total PK formation time     :      0.033u      0.000s      0.012w      1 calls
HF: Form H                  :      0.000u      0.017s      0.002w      1 calls
HF: Form S/X                :      0.000u      0.000s      0.005w      1 calls
HF: Guess                   :      0.067u      0.000s      0.051w      1 calls
SAD Guess                   :      0.067u      0.000s      0.049w      1 calls
HF: Form G                  :      0.000u      0.000s      0.001w     12 calls
JK: D                       :      0.000u      0.000s      0.000w     12 calls
JK: USO2AO                  :      0.000u      0.000s      0.000w     12 calls
JK: JK                      :      0.000u      0.000s      0.000w     12 calls
PK computes JK              :      0.000u      0.000s      0.000w     12 calls
JK: AO2USO                  :      0.000u      0.000s      0.000w     12 calls
HF: Form F                  :      0.000u      0.000s      0.000w     12 calls
HF: DIIS                    :      0.000u      0.000s      0.002w     12 calls
DIISManager::add_entry      :      0.000u      0.000s      0.001w     11 calls
DIISManager::extrapolate    :      0.000u      0.000s      0.001w     10 calls
bMatrix setup               :      0.000u      0.000s      0.000w     10 calls
bMatrix pseudoinverse       :      0.000u      0.000s      0.000w     10 calls
New vector                  :      0.000u      0.000s      0.000w     10 calls
HF: Form C                  :      0.000u      0.000s      0.000w     12 calls
HF: Form D                  :      0.000u      0.000s      0.000w     12 calls

-----------------------------------------------------------
Total PK formation time     :      0.033u      0.000s      0.012w      1 calls
HF: Form H                  :      0.000u      0.017s      0.002w      1 calls
HF: Form S/X                :      0.000u      0.000s      0.005w      1 calls
HF: Guess                   :      0.067u      0.000s      0.051w      1 calls
| SAD Guess                 :      0.067u      0.000s      0.049w      1 calls
HF: Form G                  :      0.000u      0.000s      0.001w     12 calls
| JK: D                     :      0.000u      0.000s      0.000w     12 calls
| JK: USO2AO                :      0.000u      0.000s      0.000w     12 calls
| JK: JK                    :      0.000u      0.000s      0.000w     12 calls
| | PK computes JK          :      0.000u      0.000s      0.000w     12 calls
| JK: AO2USO                :      0.000u      0.000s      0.000w     12 calls
HF: Form F                  :      0.000u      0.000s      0.000w     12 calls
HF: DIIS                    :      0.000u      0.000s      0.002w     12 calls
| DIISManager::add_entry    :      0.000u      0.000s      0.001w     11 calls
| DIISManager::extrapolate  :      0.000u      0.000s      0.001w     10 calls
| | bMatrix setup           :      0.000u      0.000s      0.000w     10 calls
| | bMatrix pseudoinverse   :      0.000u      0.000s      0.000w     10 calls
| | New vector              :      0.000u      0.000s      0.000w     10 calls
HF: Form C                  :      0.000u      0.000s      0.000w     12 calls
HF: Form D                  :      0.000u      0.000s      0.000w     12 calls

***********************************************************

Host: Ruhees-MacBook-Pro.local

Timers On : Wed Jan  9 11:22:07 2019
Timers Off: Wed Jan  9 11:22:08 2019

Wall Time:        0.82 seconds

Total PK formation time     :      0.017u      0.000s      0.011w      1 calls
HF: Form H                  :      0.000u      0.000s      0.001w      1 calls
HF: Form S/X                :      0.017u      0.000s      0.000w      1 calls
HF: Guess                   :      0.050u      0.017s      0.040w      1 calls
SAD Guess                   :      0.050u      0.017s      0.039w      1 calls
HF: Form G                  :      0.000u      0.000s      0.001w     12 calls
JK: D                       :      0.000u      0.000s      0.000w     12 calls
JK: USO2AO                  :      0.000u      0.000s      0.000w     12 calls
JK: JK                      :      0.000u      0.000s      0.000w     12 calls
PK computes JK              :      0.000u      0.000s      0.000w     12 calls
JK: AO2USO                  :      0.000u      0.000s      0.000w     12 calls
HF: Form F                  :      0.000u      0.000s      0.000w     12 calls
HF: DIIS                    :      0.000u      0.000s      0.002w     12 calls
DIISManager::add_entry      :      0.000u      0.000s      0.001w     11 calls
DIISManager::extrapolate    :      0.000u      0.000s      0.001w     10 calls
bMatrix setup               :      0.000u      0.000s      0.000w     10 calls
bMatrix pseudoinverse       :      0.000u      0.000s      0.000w     10 calls
New vector                  :      0.000u      0.000s      0.000w     10 calls
HF: Form C                  :      0.000u      0.000s      0.000w     12 calls
HF: Form D                  :      0.000u      0.000s      0.000w     12 calls

-----------------------------------------------------------
Total PK formation time     :      0.017u      0.000s      0.011w      1 calls
HF: Form H                  :      0.000u      0.000s      0.001w      1 calls
HF: Form S/X                :      0.017u      0.000s      0.000w      1 calls
HF: Guess                   :      0.050u      0.017s      0.040w      1 calls
| SAD Guess                 :      0.050u      0.017s      0.039w      1 calls
HF: Form G                  :      0.000u      0.000s      0.001w     12 calls
| JK: D                     :      0.000u      0.000s      0.000w     12 calls
| JK: USO2AO                :      0.000u      0.000s      0.000w     12 calls
| JK: JK                    :      0.000u      0.000s      0.000w     12 calls
| | PK computes JK          :      0.000u      0.000s      0.000w     12 calls
| JK: AO2USO                :      0.000u      0.000s      0.000w     12 calls
HF: Form F                  :      0.000u      0.000s      0.000w     12 calls
HF: DIIS                    :      0.000u      0.000s      0.002w     12 calls
| DIISManager::add_entry    :      0.000u      0.000s      0.001w     11 calls
| DIISManager::extrapolate  :      0.000u      0.000s      0.001w     10 calls
| | bMatrix setup           :      0.000u      0.000s      0.000w     10 calls
| | bMatrix pseudoinverse   :      0.000u      0.000s      0.000w     10 calls
| | New vector              :      0.000u      0.000s      0.000w     10 calls
HF: Form C                  :      0.000u      0.000s      0.000w     12 calls
HF: Form D                  :      0.000u      0.000s      0.000w     12 calls

***********************************************************

Host: Ruhees-MacBook-Pro.local

Timers On : Wed Jan  9 11:22:20 2019
Timers Off: Wed Jan  9 11:22:20 2019

Wall Time:        0.81 seconds

Total PK formation time     :      0.017u      0.000s      0.011w      1 calls
HF: Form H                  :      0.000u      0.017s      0.001w      1 calls
HF: Form S/X                :      0.000u      0.000s      0.000w      1 calls
HF: Guess                   :      0.067u      0.000s      0.042w      1 calls
SAD Guess                   :      0.050u      0.000s      0.041w      1 calls
HF: Form G                  :      0.017u      0.000s      0.000w     12 calls
JK: D                       :      0.000u      0.000s      0.000w     12 calls
JK: USO2AO                  :      0.000u      0.000s      0.000w     12 calls
JK: JK                      :      0.017u      0.000s      0.000w     12 calls
PK computes JK              :      0.017u      0.000s      0.000w     12 calls
JK: AO2USO                  :      0.000u      0.000s      0.000w     12 calls
HF: Form F                  :      0.000u      0.000s      0.000w     12 calls
HF: DIIS                    :      0.000u      0.000s      0.002w     12 calls
DIISManager::add_entry      :      0.000u      0.000s      0.001w     11 calls
DIISManager::extrapolate    :      0.000u      0.000s      0.001w     10 calls
bMatrix setup               :      0.000u      0.000s      0.000w     10 calls
bMatrix pseudoinverse       :      0.000u      0.000s      0.000w     10 calls
New vector                  :      0.000u      0.000s      0.000w     10 calls
HF: Form C                  :      0.000u      0.000s      0.000w     12 calls
HF: Form D                  :      0.000u      0.000s      0.000w     12 calls

-----------------------------------------------------------
Total PK formation time     :      0.017u      0.000s      0.011w      1 calls
HF: Form H                  :      0.000u      0.017s      0.001w      1 calls
HF: Form S/X                :      0.000u      0.000s      0.000w      1 calls
HF: Guess                   :      0.067u      0.000s      0.042w      1 calls
| SAD Guess                 :      0.050u      0.000s      0.041w      1 calls
HF: Form G                  :      0.017u      0.000s      0.000w     12 calls
| JK: D                     :      0.000u      0.000s      0.000w     12 calls
| JK: USO2AO                :      0.000u      0.000s      0.000w     12 calls
| JK: JK                    :      0.017u      0.000s      0.000w     12 calls
| | PK computes JK          :      0.017u      0.000s      0.000w     12 calls
| JK: AO2USO                :      0.000u      0.000s      0.000w     12 calls
HF: Form F                  :      0.000u      0.000s      0.000w     12 calls
HF: DIIS                    :      0.000u      0.000s      0.002w     12 calls
| DIISManager::add_entry    :      0.000u      0.000s      0.001w     11 calls
| DIISManager::extrapolate  :      0.000u      0.000s      0.001w     10 calls
| | bMatrix setup           :      0.000u      0.000s      0.000w     10 calls
| | bMatrix pseudoinverse   :      0.000u      0.000s      0.000w     10 calls
| | New vector              :      0.000u      0.000s      0.000w     10 calls
HF: Form C                  :      0.000u      0.000s      0.000w     12 calls
HF: Form D                  :      0.000u      0.000s      0.000w     12 calls

***********************************************************

Host: Ruhees-MacBook-Pro.local

Timers On : Wed Jan  9 11:22:45 2019
Timers Off: Wed Jan  9 11:22:46 2019

Wall Time:        0.46 seconds


-----------------------------------------------------------

***********************************************************

Host: Ruhees-MacBook-Pro.local

Timers On : Wed Jan  9 11:23:24 2019
Timers Off: Wed Jan  9 11:23:25 2019

Wall Time:        0.83 seconds

Total PK formation time     :      0.017u      0.000s      0.012w      1 calls
HF: Form H                  :      0.000u      0.000s      0.001w      1 calls
HF: Form S/X                :      0.000u      0.000s      0.000w      1 calls
HF: Guess                   :      0.067u      0.000s      0.046w      1 calls
SAD Guess                   :      0.067u      0.000s      0.044w      1 calls
HF: Form G                  :      0.000u      0.000s      0.001w     12 calls
JK: D                       :      0.000u      0.000s      0.000w     12 calls
JK: USO2AO                  :      0.000u      0.000s      0.000w     12 calls
JK: JK                      :      0.000u      0.000s      0.000w     12 calls
PK computes JK              :      0.000u      0.000s      0.000w     12 calls
JK: AO2USO                  :      0.000u      0.000s      0.000w     12 calls
HF: Form F                  :      0.000u      0.000s      0.000w     12 calls
HF: DIIS                    :      0.000u      0.000s      0.002w     12 calls
DIISManager::add_entry      :      0.000u      0.000s      0.001w     11 calls
DIISManager::extrapolate    :      0.000u      0.000s      0.001w     10 calls
bMatrix setup               :      0.000u      0.000s      0.000w     10 calls
bMatrix pseudoinverse       :      0.000u      0.000s      0.000w     10 calls
New vector                  :      0.000u      0.000s      0.000w     10 calls
HF: Form C                  :      0.000u      0.000s      0.000w     12 calls
HF: Form D                  :      0.000u      0.000s      0.000w     12 calls

-----------------------------------------------------------
Total PK formation time     :      0.017u      0.000s      0.012w      1 calls
HF: Form H                  :      0.000u      0.000s      0.001w      1 calls
HF: Form S/X                :      0.000u      0.000s      0.000w      1 calls
HF: Guess                   :      0.067u      0.000s      0.046w      1 calls
| SAD Guess                 :      0.067u      0.000s      0.044w      1 calls
HF: Form G                  :      0.000u      0.000s      0.001w     12 calls
| JK: D                     :      0.000u      0.000s      0.000w     12 calls
| JK: USO2AO                :      0.000u      0.000s      0.000w     12 calls
| JK: JK                    :      0.000u      0.000s      0.000w     12 calls
| | PK computes JK          :      0.000u      0.000s      0.000w     12 calls
| JK: AO2USO                :      0.000u      0.000s      0.000w     12 calls
HF: Form F                  :      0.000u      0.000s      0.000w     12 calls
HF: DIIS                    :      0.000u      0.000s      0.002w     12 calls
| DIISManager::add_entry    :      0.000u      0.000s      0.001w     11 calls
| DIISManager::extrapolate  :      0.000u      0.000s      0.001w     10 calls
| | bMatrix setup           :      0.000u      0.000s      0.000w     10 calls
| | bMatrix pseudoinverse   :      0.000u      0.000s      0.000w     10 calls
| | New vector              :      0.000u      0.000s      0.000w     10 calls
HF: Form C                  :      0.000u      0.000s      0.000w     12 calls
HF: Form D                  :      0.000u      0.000s      0.000w     12 calls

***********************************************************

Host: Ruhees-MacBook-Pro.local

Timers On : Wed Jan  9 11:23:48 2019
Timers Off: Wed Jan  9 11:23:49 2019

Wall Time:        0.84 seconds

Total PK formation time     :      0.017u      0.000s      0.011w      1 calls
HF: Form H                  :      0.000u      0.000s      0.001w      1 calls
HF: Form S/X                :      0.000u      0.000s      0.000w      1 calls
HF: Guess                   :      0.067u      0.000s      0.039w      1 calls
SAD Guess                   :      0.067u      0.000s      0.037w      1 calls
HF: Form G                  :      0.000u      0.000s      0.000w     12 calls
JK: D                       :      0.000u      0.000s      0.000w     12 calls
JK: USO2AO                  :      0.000u      0.000s      0.000w     12 calls
JK: JK                      :      0.000u      0.000s      0.000w     12 calls
PK computes JK              :      0.000u      0.000s      0.000w     12 calls
JK: AO2USO                  :      0.000u      0.000s      0.000w     12 calls
HF: Form F                  :      0.000u      0.000s      0.000w     12 calls
HF: DIIS                    :      0.000u      0.000s      0.002w     12 calls
DIISManager::add_entry      :      0.000u      0.000s      0.001w     11 calls
DIISManager::extrapolate    :      0.000u      0.000s      0.001w     10 calls
bMatrix setup               :      0.000u      0.000s      0.000w     10 calls
bMatrix pseudoinverse       :      0.000u      0.000s      0.000w     10 calls
New vector                  :      0.000u      0.000s      0.000w     10 calls
HF: Form C                  :      0.000u      0.000s      0.000w     12 calls
HF: Form D                  :      0.000u      0.000s      0.000w     12 calls

-----------------------------------------------------------
Total PK formation time     :      0.017u      0.000s      0.011w      1 calls
HF: Form H                  :      0.000u      0.000s      0.001w      1 calls
HF: Form S/X                :      0.000u      0.000s      0.000w      1 calls
HF: Guess                   :      0.067u      0.000s      0.039w      1 calls
| SAD Guess                 :      0.067u      0.000s      0.037w      1 calls
HF: Form G                  :      0.000u      0.000s      0.000w     12 calls
| JK: D                     :      0.000u      0.000s      0.000w     12 calls
| JK: USO2AO                :      0.000u      0.000s      0.000w     12 calls
| JK: JK                    :      0.000u      0.000s      0.000w     12 calls
| | PK computes JK          :      0.000u      0.000s      0.000w     12 calls
| JK: AO2USO                :      0.000u      0.000s      0.000w     12 calls
HF: Form F                  :      0.000u      0.000s      0.000w     12 calls
HF: DIIS                    :      0.000u      0.000s      0.002w     12 calls
| DIISManager::add_entry    :      0.000u      0.000s      0.001w     11 calls
| DIISManager::extrapolate  :      0.000u      0.000s      0.001w     10 calls
| | bMatrix setup           :      0.000u      0.000s      0.000w     10 calls
| | bMatrix pseudoinverse   :      0.000u      0.000s      0.000w     10 calls
| | New vector              :      0.000u      0.000s      0.000w     10 calls
HF: Form C                  :      0.000u      0.000s      0.000w     12 calls
HF: Form D                  :      0.000u      0.000s      0.000w     12 calls

***********************************************************

Host: Ruhees-MacBook-Pro.local

Timers On : Wed Jan  9 11:26:59 2019
Timers Off: Wed Jan  9 11:27:00 2019

Wall Time:        0.83 seconds

Total PK formation time     :      0.017u      0.000s      0.014w      1 calls
HF: Form H                  :      0.000u      0.017s      0.001w      1 calls
HF: Form S/X                :      0.000u      0.000s      0.000w      1 calls
HF: Guess                   :      0.067u      0.000s      0.041w      1 calls
SAD Guess                   :      0.050u      0.000s      0.039w      1 calls
HF: Form G                  :      0.000u      0.000s      0.001w     12 calls
JK: D                       :      0.000u      0.000s      0.000w     12 calls
JK: USO2AO                  :      0.000u      0.000s      0.000w     12 calls
JK: JK                      :      0.000u      0.000s      0.000w     12 calls
PK computes JK              :      0.000u      0.000s      0.000w     12 calls
JK: AO2USO                  :      0.000u      0.000s      0.000w     12 calls
HF: Form F                  :      0.000u      0.000s      0.000w     12 calls
HF: DIIS                    :      0.017u      0.000s      0.003w     12 calls
DIISManager::add_entry      :      0.000u      0.000s      0.001w     11 calls
DIISManager::extrapolate    :      0.017u      0.000s      0.002w     10 calls
bMatrix setup               :      0.017u      0.000s      0.001w     10 calls
bMatrix pseudoinverse       :      0.000u      0.000s      0.000w     10 calls
New vector                  :      0.000u      0.000s      0.000w     10 calls
HF: Form C                  :      0.000u      0.000s      0.001w     12 calls
HF: Form D                  :      0.000u      0.000s      0.000w     12 calls

-----------------------------------------------------------
Total PK formation time     :      0.017u      0.000s      0.014w      1 calls
HF: Form H                  :      0.000u      0.017s      0.001w      1 calls
HF: Form S/X                :      0.000u      0.000s      0.000w      1 calls
HF: Guess                   :      0.067u      0.000s      0.041w      1 calls
| SAD Guess                 :      0.050u      0.000s      0.039w      1 calls
HF: Form G                  :      0.000u      0.000s      0.001w     12 calls
| JK: D                     :      0.000u      0.000s      0.000w     12 calls
| JK: USO2AO                :      0.000u      0.000s      0.000w     12 calls
| JK: JK                    :      0.000u      0.000s      0.000w     12 calls
| | PK computes JK          :      0.000u      0.000s      0.000w     12 calls
| JK: AO2USO                :      0.000u      0.000s      0.000w     12 calls
HF: Form F                  :      0.000u      0.000s      0.000w     12 calls
HF: DIIS                    :      0.017u      0.000s      0.003w     12 calls
| DIISManager::add_entry    :      0.000u      0.000s      0.001w     11 calls
| DIISManager::extrapolate  :      0.017u      0.000s      0.002w     10 calls
| | bMatrix setup           :      0.017u      0.000s      0.001w     10 calls
| | bMatrix pseudoinverse   :      0.000u      0.000s      0.000w     10 calls
| | New vector              :      0.000u      0.000s      0.000w     10 calls
HF: Form C                  :      0.000u      0.000s      0.001w     12 calls
HF: Form D                  :      0.000u      0.000s      0.000w     12 calls

***********************************************************

Host: Ruhees-MacBook-Pro.local

Timers On : Wed Jan  9 11:27:42 2019
Timers Off: Wed Jan  9 11:27:43 2019

Wall Time:        0.82 seconds

Total PK formation time     :      0.033u      0.000s      0.011w      1 calls
HF: Form H                  :      0.000u      0.000s      0.001w      1 calls
HF: Form S/X                :      0.000u      0.000s      0.000w      1 calls
HF: Guess                   :      0.067u      0.017s      0.045w      1 calls
SAD Guess                   :      0.067u      0.017s      0.042w      1 calls
HF: Form G                  :      0.000u      0.000s      0.001w     12 calls
JK: D                       :      0.000u      0.000s      0.000w     12 calls
JK: USO2AO                  :      0.000u      0.000s      0.000w     12 calls
JK: JK                      :      0.000u      0.000s      0.000w     12 calls
PK computes JK              :      0.000u      0.000s      0.000w     12 calls
JK: AO2USO                  :      0.000u      0.000s      0.000w     12 calls
HF: Form F                  :      0.000u      0.000s      0.000w     12 calls
HF: DIIS                    :      0.000u      0.000s      0.002w     12 calls
DIISManager::add_entry      :      0.000u      0.000s      0.001w     11 calls
DIISManager::extrapolate    :      0.000u      0.000s      0.001w     10 calls
bMatrix setup               :      0.000u      0.000s      0.000w     10 calls
bMatrix pseudoinverse       :      0.000u      0.000s      0.000w     10 calls
New vector                  :      0.000u      0.000s      0.000w     10 calls
HF: Form C                  :      0.000u      0.000s      0.000w     12 calls
HF: Form D                  :      0.000u      0.000s      0.000w     12 calls

-----------------------------------------------------------
Total PK formation time     :      0.033u      0.000s      0.011w      1 calls
HF: Form H                  :      0.000u      0.000s      0.001w      1 calls
HF: Form S/X                :      0.000u      0.000s      0.000w      1 calls
HF: Guess                   :      0.067u      0.017s      0.045w      1 calls
| SAD Guess                 :      0.067u      0.017s      0.042w      1 calls
HF: Form G                  :      0.000u      0.000s      0.001w     12 calls
| JK: D                     :      0.000u      0.000s      0.000w     12 calls
| JK: USO2AO                :      0.000u      0.000s      0.000w     12 calls
| JK: JK                    :      0.000u      0.000s      0.000w     12 calls
| | PK computes JK          :      0.000u      0.000s      0.000w     12 calls
| JK: AO2USO                :      0.000u      0.000s      0.000w     12 calls
HF: Form F                  :      0.000u      0.000s      0.000w     12 calls
HF: DIIS                    :      0.000u      0.000s      0.002w     12 calls
| DIISManager::add_entry    :      0.000u      0.000s      0.001w     11 calls
| DIISManager::extrapolate  :      0.000u      0.000s      0.001w     10 calls
| | bMatrix setup           :      0.000u      0.000s      0.000w     10 calls
| | bMatrix pseudoinverse   :      0.000u      0.000s      0.000w     10 calls
| | New vector              :      0.000u      0.000s      0.000w     10 calls
HF: Form C                  :      0.000u      0.000s      0.000w     12 calls
HF: Form D                  :      0.000u      0.000s      0.000w     12 calls

***********************************************************

Host: Ruhees-MacBook-Pro.local

Timers On : Wed Jan  9 11:36:14 2019
Timers Off: Wed Jan  9 11:36:14 2019

Wall Time:        0.45 seconds


-----------------------------------------------------------

***********************************************************

Host: Ruhees-MacBook-Pro.local

Timers On : Wed Jan  9 11:36:35 2019
Timers Off: Wed Jan  9 11:36:36 2019

Wall Time:        0.46 seconds


-----------------------------------------------------------

***********************************************************

Host: Ruhees-MacBook-Pro.local

Timers On : Wed Jan  9 11:36:54 2019
Timers Off: Wed Jan  9 11:36:55 2019

Wall Time:        0.47 seconds


-----------------------------------------------------------

***********************************************************

Host: Ruhees-MacBook-Pro.local

Timers On : Wed Jan  9 11:37:57 2019
Timers Off: Wed Jan  9 11:37:58 2019

Wall Time:        0.82 seconds

Total PK formation time     :      0.017u      0.000s      0.015w      1 calls
HF: Form H                  :      0.000u      0.000s      0.001w      1 calls
HF: Form S/X                :      0.000u      0.000s      0.000w      1 calls
HF: Guess                   :      0.067u      0.000s      0.041w      1 calls
SAD Guess                   :      0.050u      0.000s      0.039w      1 calls
HF: Form G                  :      0.000u      0.000s      0.001w     12 calls
JK: D                       :      0.000u      0.000s      0.000w     12 calls
JK: USO2AO                  :      0.000u      0.000s      0.000w     12 calls
JK: JK                      :      0.000u      0.000s      0.000w     12 calls
PK computes JK              :      0.000u      0.000s      0.000w     12 calls
JK: AO2USO                  :      0.000u      0.000s      0.000w     12 calls
HF: Form F                  :      0.000u      0.000s      0.000w     12 calls
HF: DIIS                    :      0.017u      0.017s      0.002w     12 calls
DIISManager::add_entry      :      0.000u      0.000s      0.001w     11 calls
DIISManager::extrapolate    :      0.017u      0.017s      0.001w     10 calls
bMatrix setup               :      0.000u      0.000s      0.000w     10 calls
bMatrix pseudoinverse       :      0.000u      0.000s      0.000w     10 calls
New vector                  :      0.017u      0.017s      0.000w     10 calls
HF: Form C                  :      0.000u      0.000s      0.000w     12 calls
HF: Form D                  :      0.000u      0.000s      0.000w     12 calls

-----------------------------------------------------------
Total PK formation time     :      0.017u      0.000s      0.015w      1 calls
HF: Form H                  :      0.000u      0.000s      0.001w      1 calls
HF: Form S/X                :      0.000u      0.000s      0.000w      1 calls
HF: Guess                   :      0.067u      0.000s      0.041w      1 calls
| SAD Guess                 :      0.050u      0.000s      0.039w      1 calls
HF: Form G                  :      0.000u      0.000s      0.001w     12 calls
| JK: D                     :      0.000u      0.000s      0.000w     12 calls
| JK: USO2AO                :      0.000u      0.000s      0.000w     12 calls
| JK: JK                    :      0.000u      0.000s      0.000w     12 calls
| | PK computes JK          :      0.000u      0.000s      0.000w     12 calls
| JK: AO2USO                :      0.000u      0.000s      0.000w     12 calls
HF: Form F                  :      0.000u      0.000s      0.000w     12 calls
HF: DIIS                    :      0.017u      0.017s      0.002w     12 calls
| DIISManager::add_entry    :      0.000u      0.000s      0.001w     11 calls
| DIISManager::extrapolate  :      0.017u      0.017s      0.001w     10 calls
| | bMatrix setup           :      0.000u      0.000s      0.000w     10 calls
| | bMatrix pseudoinverse   :      0.000u      0.000s      0.000w     10 calls
| | New vector              :      0.017u      0.017s      0.000w     10 calls
HF: Form C                  :      0.000u      0.000s      0.000w     12 calls
HF: Form D                  :      0.000u      0.000s      0.000w     12 calls

***********************************************************

Host: Ruhees-MacBook-Pro.local

Timers On : Wed Jan  9 11:38:22 2019
Timers Off: Wed Jan  9 11:38:23 2019

Wall Time:        0.81 seconds

Total PK formation time     :      0.017u      0.000s      0.012w      1 calls
HF: Form H                  :      0.000u      0.000s      0.001w      1 calls
HF: Form S/X                :      0.000u      0.000s      0.000w      1 calls
HF: Guess                   :      0.067u      0.000s      0.041w      1 calls
SAD Guess                   :      0.067u      0.000s      0.039w      1 calls
HF: Form G                  :      0.000u      0.000s      0.000w     12 calls
JK: D                       :      0.000u      0.000s      0.000w     12 calls
JK: USO2AO                  :      0.000u      0.000s      0.000w     12 calls
JK: JK                      :      0.000u      0.000s      0.000w     12 calls
PK computes JK              :      0.000u      0.000s      0.000w     12 calls
JK: AO2USO                  :      0.000u      0.000s      0.000w     12 calls
HF: Form F                  :      0.000u      0.000s      0.000w     12 calls
HF: DIIS                    :      0.000u      0.017s      0.002w     12 calls
DIISManager::add_entry      :      0.000u      0.017s      0.001w     11 calls
DIISManager::extrapolate    :      0.000u      0.000s      0.001w     10 calls
bMatrix setup               :      0.000u      0.000s      0.000w     10 calls
bMatrix pseudoinverse       :      0.000u      0.000s      0.000w     10 calls
New vector                  :      0.000u      0.000s      0.000w     10 calls
HF: Form C                  :      0.000u      0.000s      0.000w     12 calls
HF: Form D                  :      0.000u      0.000s      0.000w     12 calls

-----------------------------------------------------------
Total PK formation time     :      0.017u      0.000s      0.012w      1 calls
HF: Form H                  :      0.000u      0.000s      0.001w      1 calls
HF: Form S/X                :      0.000u      0.000s      0.000w      1 calls
HF: Guess                   :      0.067u      0.000s      0.041w      1 calls
| SAD Guess                 :      0.067u      0.000s      0.039w      1 calls
HF: Form G                  :      0.000u      0.000s      0.000w     12 calls
| JK: D                     :      0.000u      0.000s      0.000w     12 calls
| JK: USO2AO                :      0.000u      0.000s      0.000w     12 calls
| JK: JK                    :      0.000u      0.000s      0.000w     12 calls
| | PK computes JK          :      0.000u      0.000s      0.000w     12 calls
| JK: AO2USO                :      0.000u      0.000s      0.000w     12 calls
HF: Form F                  :      0.000u      0.000s      0.000w     12 calls
HF: DIIS                    :      0.000u      0.017s      0.002w     12 calls
| DIISManager::add_entry    :      0.000u      0.017s      0.001w     11 calls
| DIISManager::extrapolate  :      0.000u      0.000s      0.001w     10 calls
| | bMatrix setup           :      0.000u      0.000s      0.000w     10 calls
| | bMatrix pseudoinverse   :      0.000u      0.000s      0.000w     10 calls
| | New vector              :      0.000u      0.000s      0.000w     10 calls
HF: Form C                  :      0.000u      0.000s      0.000w     12 calls
HF: Form D                  :      0.000u      0.000s      0.000w     12 calls

***********************************************************

Host: Ruhees-MacBook-Pro.local

Timers On : Wed Jan  9 12:38:02 2019
Timers Off: Wed Jan  9 12:38:03 2019

Wall Time:        0.84 seconds

Total PK formation time     :      0.017u      0.000s      0.013w      1 calls
HF: Form H                  :      0.000u      0.017s      0.001w      1 calls
HF: Form S/X                :      0.000u      0.000s      0.000w      1 calls
HF: Guess                   :      0.083u      0.000s      0.044w      1 calls
SAD Guess                   :      0.067u      0.000s      0.043w      1 calls
HF: Form G                  :      0.000u      0.000s      0.001w     12 calls
JK: D                       :      0.000u      0.000s      0.000w     12 calls
JK: USO2AO                  :      0.000u      0.000s      0.000w     12 calls
JK: JK                      :      0.000u      0.000s      0.000w     12 calls
PK computes JK              :      0.000u      0.000s      0.000w     12 calls
JK: AO2USO                  :      0.000u      0.000s      0.000w     12 calls
HF: Form F                  :      0.000u      0.000s      0.000w     12 calls
HF: DIIS                    :      0.000u      0.000s      0.003w     12 calls
DIISManager::add_entry      :      0.000u      0.000s      0.001w     11 calls
DIISManager::extrapolate    :      0.000u      0.000s      0.002w     10 calls
bMatrix setup               :      0.000u      0.000s      0.001w     10 calls
bMatrix pseudoinverse       :      0.000u      0.000s      0.000w     10 calls
New vector                  :      0.000u      0.000s      0.000w     10 calls
HF: Form C                  :      0.000u      0.000s      0.001w     12 calls
HF: Form D                  :      0.000u      0.000s      0.000w     12 calls

-----------------------------------------------------------
Total PK formation time     :      0.017u      0.000s      0.013w      1 calls
HF: Form H                  :      0.000u      0.017s      0.001w      1 calls
HF: Form S/X                :      0.000u      0.000s      0.000w      1 calls
HF: Guess                   :      0.083u      0.000s      0.044w      1 calls
| SAD Guess                 :      0.067u      0.000s      0.043w      1 calls
HF: Form G                  :      0.000u      0.000s      0.001w     12 calls
| JK: D                     :      0.000u      0.000s      0.000w     12 calls
| JK: USO2AO                :      0.000u      0.000s      0.000w     12 calls
| JK: JK                    :      0.000u      0.000s      0.000w     12 calls
| | PK computes JK          :      0.000u      0.000s      0.000w     12 calls
| JK: AO2USO                :      0.000u      0.000s      0.000w     12 calls
HF: Form F                  :      0.000u      0.000s      0.000w     12 calls
HF: DIIS                    :      0.000u      0.000s      0.003w     12 calls
| DIISManager::add_entry    :      0.000u      0.000s      0.001w     11 calls
| DIISManager::extrapolate  :      0.000u      0.000s      0.002w     10 calls
| | bMatrix setup           :      0.000u      0.000s      0.001w     10 calls
| | bMatrix pseudoinverse   :      0.000u      0.000s      0.000w     10 calls
| | New vector              :      0.000u      0.000s      0.000w     10 calls
HF: Form C                  :      0.000u      0.000s      0.001w     12 calls
HF: Form D                  :      0.000u      0.000s      0.000w     12 calls

***********************************************************

Host: Ruhees-MacBook-Pro.local

Timers On : Wed Jan  9 12:40:56 2019
Timers Off: Wed Jan  9 12:40:57 2019

Wall Time:        0.82 seconds

Total PK formation time     :      0.017u      0.000s      0.012w      1 calls
HF: Form H                  :      0.000u      0.000s      0.001w      1 calls
HF: Form S/X                :      0.000u      0.000s      0.000w      1 calls
HF: Guess                   :      0.067u      0.000s      0.041w      1 calls
SAD Guess                   :      0.067u      0.000s      0.039w      1 calls
HF: Form G                  :      0.000u      0.000s      0.000w     12 calls
JK: D                       :      0.000u      0.000s      0.000w     12 calls
JK: USO2AO                  :      0.000u      0.000s      0.000w     12 calls
JK: JK                      :      0.000u      0.000s      0.000w     12 calls
PK computes JK              :      0.000u      0.000s      0.000w     12 calls
JK: AO2USO                  :      0.000u      0.000s      0.000w     12 calls
HF: Form F                  :      0.000u      0.000s      0.000w     12 calls
HF: DIIS                    :      0.000u      0.000s      0.002w     12 calls
DIISManager::add_entry      :      0.000u      0.000s      0.001w     11 calls
DIISManager::extrapolate    :      0.000u      0.000s      0.001w     10 calls
bMatrix setup               :      0.000u      0.000s      0.000w     10 calls
bMatrix pseudoinverse       :      0.000u      0.000s      0.000w     10 calls
New vector                  :      0.000u      0.000s      0.000w     10 calls
HF: Form C                  :      0.000u      0.000s      0.000w     12 calls
HF: Form D                  :      0.000u      0.000s      0.000w     12 calls

-----------------------------------------------------------
Total PK formation time     :      0.017u      0.000s      0.012w      1 calls
HF: Form H                  :      0.000u      0.000s      0.001w      1 calls
HF: Form S/X                :      0.000u      0.000s      0.000w      1 calls
HF: Guess                   :      0.067u      0.000s      0.041w      1 calls
| SAD Guess                 :      0.067u      0.000s      0.039w      1 calls
HF: Form G                  :      0.000u      0.000s      0.000w     12 calls
| JK: D                     :      0.000u      0.000s      0.000w     12 calls
| JK: USO2AO                :      0.000u      0.000s      0.000w     12 calls
| JK: JK                    :      0.000u      0.000s      0.000w     12 calls
| | PK computes JK          :      0.000u      0.000s      0.000w     12 calls
| JK: AO2USO                :      0.000u      0.000s      0.000w     12 calls
HF: Form F                  :      0.000u      0.000s      0.000w     12 calls
HF: DIIS                    :      0.000u      0.000s      0.002w     12 calls
| DIISManager::add_entry    :      0.000u      0.000s      0.001w     11 calls
| DIISManager::extrapolate  :      0.000u      0.000s      0.001w     10 calls
| | bMatrix setup           :      0.000u      0.000s      0.000w     10 calls
| | bMatrix pseudoinverse   :      0.000u      0.000s      0.000w     10 calls
| | New vector              :      0.000u      0.000s      0.000w     10 calls
HF: Form C                  :      0.000u      0.000s      0.000w     12 calls
HF: Form D                  :      0.000u      0.000s      0.000w     12 calls

***********************************************************

Host: Ruhees-MacBook-Pro.local

Timers On : Wed Jan  9 12:44:27 2019
Timers Off: Wed Jan  9 12:44:28 2019

Wall Time:        0.83 seconds

Total PK formation time     :      0.017u      0.000s      0.012w      1 calls
HF: Form H                  :      0.000u      0.000s      0.002w      1 calls
HF: Form S/X                :      0.000u      0.000s      0.000w      1 calls
HF: Guess                   :      0.083u      0.017s      0.047w      1 calls
SAD Guess                   :      0.083u      0.017s      0.044w      1 calls
HF: Form G                  :      0.000u      0.000s      0.000w     12 calls
JK: D                       :      0.000u      0.000s      0.000w     12 calls
JK: USO2AO                  :      0.000u      0.000s      0.000w     12 calls
JK: JK                      :      0.000u      0.000s      0.000w     12 calls
PK computes JK              :      0.000u      0.000s      0.000w     12 calls
JK: AO2USO                  :      0.000u      0.000s      0.000w     12 calls
HF: Form F                  :      0.000u      0.000s      0.000w     12 calls
HF: DIIS                    :      0.000u      0.000s      0.002w     12 calls
DIISManager::add_entry      :      0.000u      0.000s      0.001w     11 calls
DIISManager::extrapolate    :      0.000u      0.000s      0.001w     10 calls
bMatrix setup               :      0.000u      0.000s      0.000w     10 calls
bMatrix pseudoinverse       :      0.000u      0.000s      0.000w     10 calls
New vector                  :      0.000u      0.000s      0.000w     10 calls
HF: Form C                  :      0.000u      0.000s      0.000w     12 calls
HF: Form D                  :      0.000u      0.000s      0.000w     12 calls

-----------------------------------------------------------
Total PK formation time     :      0.017u      0.000s      0.012w      1 calls
HF: Form H                  :      0.000u      0.000s      0.002w      1 calls
HF: Form S/X                :      0.000u      0.000s      0.000w      1 calls
HF: Guess                   :      0.083u      0.017s      0.047w      1 calls
| SAD Guess                 :      0.083u      0.017s      0.044w      1 calls
HF: Form G                  :      0.000u      0.000s      0.000w     12 calls
| JK: D                     :      0.000u      0.000s      0.000w     12 calls
| JK: USO2AO                :      0.000u      0.000s      0.000w     12 calls
| JK: JK                    :      0.000u      0.000s      0.000w     12 calls
| | PK computes JK          :      0.000u      0.000s      0.000w     12 calls
| JK: AO2USO                :      0.000u      0.000s      0.000w     12 calls
HF: Form F                  :      0.000u      0.000s      0.000w     12 calls
HF: DIIS                    :      0.000u      0.000s      0.002w     12 calls
| DIISManager::add_entry    :      0.000u      0.000s      0.001w     11 calls
| DIISManager::extrapolate  :      0.000u      0.000s      0.001w     10 calls
| | bMatrix setup           :      0.000u      0.000s      0.000w     10 calls
| | bMatrix pseudoinverse   :      0.000u      0.000s      0.000w     10 calls
| | New vector              :      0.000u      0.000s      0.000w     10 calls
HF: Form C                  :      0.000u      0.000s      0.000w     12 calls
HF: Form D                  :      0.000u      0.000s      0.000w     12 calls

***********************************************************

Host: Ruhees-MacBook-Pro.local

Timers On : Wed Jan  9 12:54:43 2019
Timers Off: Wed Jan  9 12:54:43 2019

Wall Time:        0.88 seconds

Total PK formation time     :      0.017u      0.000s      0.016w      1 calls
HF: Form H                  :      0.000u      0.017s      0.002w      1 calls
HF: Form S/X                :      0.000u      0.000s      0.001w      1 calls
HF: Guess                   :      0.083u      0.000s      0.054w      1 calls
SAD Guess                   :      0.067u      0.000s      0.052w      1 calls
HF: Form G                  :      0.000u      0.000s      0.001w     12 calls
JK: D                       :      0.000u      0.000s      0.000w     12 calls
JK: USO2AO                  :      0.000u      0.000s      0.000w     12 calls
JK: JK                      :      0.000u      0.000s      0.000w     12 calls
PK computes JK              :      0.000u      0.000s      0.000w     12 calls
JK: AO2USO                  :      0.000u      0.000s      0.000w     12 calls
HF: Form F                  :      0.000u      0.000s      0.000w     12 calls
HF: DIIS                    :      0.017u      0.000s      0.002w     12 calls
DIISManager::add_entry      :      0.000u      0.000s      0.001w     11 calls
DIISManager::extrapolate    :      0.000u      0.000s      0.001w     10 calls
bMatrix setup               :      0.000u      0.000s      0.000w     10 calls
bMatrix pseudoinverse       :      0.000u      0.000s      0.000w     10 calls
New vector                  :      0.000u      0.000s      0.000w     10 calls
HF: Form C                  :      0.000u      0.000s      0.000w     12 calls
HF: Form D                  :      0.000u      0.000s      0.000w     12 calls

-----------------------------------------------------------
Total PK formation time     :      0.017u      0.000s      0.016w      1 calls
HF: Form H                  :      0.000u      0.017s      0.002w      1 calls
HF: Form S/X                :      0.000u      0.000s      0.001w      1 calls
HF: Guess                   :      0.083u      0.000s      0.054w      1 calls
| SAD Guess                 :      0.067u      0.000s      0.052w      1 calls
HF: Form G                  :      0.000u      0.000s      0.001w     12 calls
| JK: D                     :      0.000u      0.000s      0.000w     12 calls
| JK: USO2AO                :      0.000u      0.000s      0.000w     12 calls
| JK: JK                    :      0.000u      0.000s      0.000w     12 calls
| | PK computes JK          :      0.000u      0.000s      0.000w     12 calls
| JK: AO2USO                :      0.000u      0.000s      0.000w     12 calls
HF: Form F                  :      0.000u      0.000s      0.000w     12 calls
HF: DIIS                    :      0.017u      0.000s      0.002w     12 calls
| DIISManager::add_entry    :      0.000u      0.000s      0.001w     11 calls
| DIISManager::extrapolate  :      0.000u      0.000s      0.001w     10 calls
| | bMatrix setup           :      0.000u      0.000s      0.000w     10 calls
| | bMatrix pseudoinverse   :      0.000u      0.000s      0.000w     10 calls
| | New vector              :      0.000u      0.000s      0.000w     10 calls
HF: Form C                  :      0.000u      0.000s      0.000w     12 calls
HF: Form D                  :      0.000u      0.000s      0.000w     12 calls

***********************************************************

Host: Ruhees-MacBook-Pro.local

Timers On : Wed Jan  9 12:55:02 2019
Timers Off: Wed Jan  9 12:55:03 2019

Wall Time:        0.81 seconds

Total PK formation time     :      0.017u      0.000s      0.012w      1 calls
HF: Form H                  :      0.000u      0.000s      0.001w      1 calls
HF: Form S/X                :      0.000u      0.000s      0.000w      1 calls
HF: Guess                   :      0.067u      0.000s      0.041w      1 calls
SAD Guess                   :      0.050u      0.000s      0.040w      1 calls
HF: Form G                  :      0.000u      0.000s      0.000w     12 calls
JK: D                       :      0.000u      0.000s      0.000w     12 calls
JK: USO2AO                  :      0.000u      0.000s      0.000w     12 calls
JK: JK                      :      0.000u      0.000s      0.000w     12 calls
PK computes JK              :      0.000u      0.000s      0.000w     12 calls
JK: AO2USO                  :      0.000u      0.000s      0.000w     12 calls
HF: Form F                  :      0.000u      0.000s      0.000w     12 calls
HF: DIIS                    :      0.017u      0.000s      0.002w     12 calls
DIISManager::add_entry      :      0.000u      0.000s      0.001w     11 calls
DIISManager::extrapolate    :      0.017u      0.000s      0.001w     10 calls
bMatrix setup               :      0.000u      0.000s      0.000w     10 calls
bMatrix pseudoinverse       :      0.000u      0.000s      0.000w     10 calls
New vector                  :      0.000u      0.000s      0.000w     10 calls
HF: Form C                  :      0.000u      0.000s      0.000w     12 calls
HF: Form D                  :      0.000u      0.000s      0.000w     12 calls

-----------------------------------------------------------
Total PK formation time     :      0.017u      0.000s      0.012w      1 calls
HF: Form H                  :      0.000u      0.000s      0.001w      1 calls
HF: Form S/X                :      0.000u      0.000s      0.000w      1 calls
HF: Guess                   :      0.067u      0.000s      0.041w      1 calls
| SAD Guess                 :      0.050u      0.000s      0.040w      1 calls
HF: Form G                  :      0.000u      0.000s      0.000w     12 calls
| JK: D                     :      0.000u      0.000s      0.000w     12 calls
| JK: USO2AO                :      0.000u      0.000s      0.000w     12 calls
| JK: JK                    :      0.000u      0.000s      0.000w     12 calls
| | PK computes JK          :      0.000u      0.000s      0.000w     12 calls
| JK: AO2USO                :      0.000u      0.000s      0.000w     12 calls
HF: Form F                  :      0.000u      0.000s      0.000w     12 calls
HF: DIIS                    :      0.017u      0.000s      0.002w     12 calls
| DIISManager::add_entry    :      0.000u      0.000s      0.001w     11 calls
| DIISManager::extrapolate  :      0.017u      0.000s      0.001w     10 calls
| | bMatrix setup           :      0.000u      0.000s      0.000w     10 calls
| | bMatrix pseudoinverse   :      0.000u      0.000s      0.000w     10 calls
| | New vector              :      0.000u      0.000s      0.000w     10 calls
HF: Form C                  :      0.000u      0.000s      0.000w     12 calls
HF: Form D                  :      0.000u      0.000s      0.000w     12 calls

***********************************************************

Host: Ruhees-MacBook-Pro.local

Timers On : Wed Jan  9 13:53:53 2019
Timers Off: Wed Jan  9 13:53:54 2019

Wall Time:        1.41 seconds

Total PK formation time     :      0.033u      0.017s      0.018w      1 calls
HF: Form H                  :      0.000u      0.000s      0.002w      1 calls
HF: Form S/X                :      0.000u      0.000s      0.004w      1 calls
HF: Guess                   :      0.067u      0.000s      0.058w      1 calls
SAD Guess                   :      0.067u      0.000s      0.056w      1 calls
HF: Form G                  :      0.000u      0.000s      0.001w     12 calls
JK: D                       :      0.000u      0.000s      0.000w     12 calls
JK: USO2AO                  :      0.000u      0.000s      0.000w     12 calls
JK: JK                      :      0.000u      0.000s      0.000w     12 calls
PK computes JK              :      0.000u      0.000s      0.000w     12 calls
JK: AO2USO                  :      0.000u      0.000s      0.000w     12 calls
HF: Form F                  :      0.000u      0.000s      0.000w     12 calls
HF: DIIS                    :      0.000u      0.000s      0.002w     12 calls
DIISManager::add_entry      :      0.000u      0.000s      0.001w     11 calls
DIISManager::extrapolate    :      0.000u      0.000s      0.001w     10 calls
bMatrix setup               :      0.000u      0.000s      0.000w     10 calls
bMatrix pseudoinverse       :      0.000u      0.000s      0.000w     10 calls
New vector                  :      0.000u      0.000s      0.000w     10 calls
HF: Form C                  :      0.000u      0.000s      0.000w     12 calls
HF: Form D                  :      0.000u      0.000s      0.000w     12 calls

-----------------------------------------------------------
Total PK formation time     :      0.033u      0.017s      0.018w      1 calls
HF: Form H                  :      0.000u      0.000s      0.002w      1 calls
HF: Form S/X                :      0.000u      0.000s      0.004w      1 calls
HF: Guess                   :      0.067u      0.000s      0.058w      1 calls
| SAD Guess                 :      0.067u      0.000s      0.056w      1 calls
HF: Form G                  :      0.000u      0.000s      0.001w     12 calls
| JK: D                     :      0.000u      0.000s      0.000w     12 calls
| JK: USO2AO                :      0.000u      0.000s      0.000w     12 calls
| JK: JK                    :      0.000u      0.000s      0.000w     12 calls
| | PK computes JK          :      0.000u      0.000s      0.000w     12 calls
| JK: AO2USO                :      0.000u      0.000s      0.000w     12 calls
HF: Form F                  :      0.000u      0.000s      0.000w     12 calls
HF: DIIS                    :      0.000u      0.000s      0.002w     12 calls
| DIISManager::add_entry    :      0.000u      0.000s      0.001w     11 calls
| DIISManager::extrapolate  :      0.000u      0.000s      0.001w     10 calls
| | bMatrix setup           :      0.000u      0.000s      0.000w     10 calls
| | bMatrix pseudoinverse   :      0.000u      0.000s      0.000w     10 calls
| | New vector              :      0.000u      0.000s      0.000w     10 calls
HF: Form C                  :      0.000u      0.000s      0.000w     12 calls
HF: Form D                  :      0.000u      0.000s      0.000w     12 calls

***********************************************************

Host: Ruhees-MacBook-Pro.local

Timers On : Wed Jan  9 14:00:41 2019
Timers Off: Wed Jan  9 14:00:42 2019

Wall Time:        0.85 seconds

Total PK formation time     :      0.017u      0.000s      0.012w      1 calls
HF: Form H                  :      0.000u      0.000s      0.001w      1 calls
HF: Form S/X                :      0.000u      0.000s      0.000w      1 calls
HF: Guess                   :      0.083u      0.000s      0.049w      1 calls
SAD Guess                   :      0.083u      0.000s      0.046w      1 calls
HF: Form G                  :      0.000u      0.000s      0.001w     12 calls
JK: D                       :      0.000u      0.000s      0.000w     12 calls
JK: USO2AO                  :      0.000u      0.000s      0.000w     12 calls
JK: JK                      :      0.000u      0.000s      0.000w     12 calls
PK computes JK              :      0.000u      0.000s      0.000w     12 calls
JK: AO2USO                  :      0.000u      0.000s      0.000w     12 calls
HF: Form F                  :      0.000u      0.000s      0.000w     12 calls
HF: DIIS                    :      0.000u      0.017s      0.002w     12 calls
DIISManager::add_entry      :      0.000u      0.017s      0.001w     11 calls
DIISManager::extrapolate    :      0.000u      0.000s      0.001w     10 calls
bMatrix setup               :      0.000u      0.000s      0.000w     10 calls
bMatrix pseudoinverse       :      0.000u      0.000s      0.000w     10 calls
New vector                  :      0.000u      0.000s      0.000w     10 calls
HF: Form C                  :      0.000u      0.000s      0.000w     12 calls
HF: Form D                  :      0.000u      0.000s      0.000w     12 calls

-----------------------------------------------------------
Total PK formation time     :      0.017u      0.000s      0.012w      1 calls
HF: Form H                  :      0.000u      0.000s      0.001w      1 calls
HF: Form S/X                :      0.000u      0.000s      0.000w      1 calls
HF: Guess                   :      0.083u      0.000s      0.049w      1 calls
| SAD Guess                 :      0.083u      0.000s      0.046w      1 calls
HF: Form G                  :      0.000u      0.000s      0.001w     12 calls
| JK: D                     :      0.000u      0.000s      0.000w     12 calls
| JK: USO2AO                :      0.000u      0.000s      0.000w     12 calls
| JK: JK                    :      0.000u      0.000s      0.000w     12 calls
| | PK computes JK          :      0.000u      0.000s      0.000w     12 calls
| JK: AO2USO                :      0.000u      0.000s      0.000w     12 calls
HF: Form F                  :      0.000u      0.000s      0.000w     12 calls
HF: DIIS                    :      0.000u      0.017s      0.002w     12 calls
| DIISManager::add_entry    :      0.000u      0.017s      0.001w     11 calls
| DIISManager::extrapolate  :      0.000u      0.000s      0.001w     10 calls
| | bMatrix setup           :      0.000u      0.000s      0.000w     10 calls
| | bMatrix pseudoinverse   :      0.000u      0.000s      0.000w     10 calls
| | New vector              :      0.000u      0.000s      0.000w     10 calls
HF: Form C                  :      0.000u      0.000s      0.000w     12 calls
HF: Form D                  :      0.000u      0.000s      0.000w     12 calls

***********************************************************

Host: Ruhees-MacBook-Pro.local

Timers On : Wed Jan  9 14:03:03 2019
Timers Off: Wed Jan  9 14:03:04 2019

Wall Time:        0.84 seconds

Total PK formation time     :      0.017u      0.000s      0.013w      1 calls
HF: Form H                  :      0.000u      0.000s      0.001w      1 calls
HF: Form S/X                :      0.000u      0.000s      0.000w      1 calls
HF: Guess                   :      0.067u      0.017s      0.042w      1 calls
SAD Guess                   :      0.067u      0.017s      0.040w      1 calls
HF: Form G                  :      0.000u      0.000s      0.001w     12 calls
JK: D                       :      0.000u      0.000s      0.000w     12 calls
JK: USO2AO                  :      0.000u      0.000s      0.000w     12 calls
JK: JK                      :      0.000u      0.000s      0.000w     12 calls
PK computes JK              :      0.000u      0.000s      0.000w     12 calls
JK: AO2USO                  :      0.000u      0.000s      0.000w     12 calls
HF: Form F                  :      0.000u      0.000s      0.000w     12 calls
HF: DIIS                    :      0.000u      0.000s      0.002w     12 calls
DIISManager::add_entry      :      0.000u      0.000s      0.001w     11 calls
DIISManager::extrapolate    :      0.000u      0.000s      0.001w     10 calls
bMatrix setup               :      0.000u      0.000s      0.000w     10 calls
bMatrix pseudoinverse       :      0.000u      0.000s      0.000w     10 calls
New vector                  :      0.000u      0.000s      0.000w     10 calls
HF: Form C                  :      0.000u      0.000s      0.000w     12 calls
HF: Form D                  :      0.000u      0.000s      0.000w     12 calls

-----------------------------------------------------------
Total PK formation time     :      0.017u      0.000s      0.013w      1 calls
HF: Form H                  :      0.000u      0.000s      0.001w      1 calls
HF: Form S/X                :      0.000u      0.000s      0.000w      1 calls
HF: Guess                   :      0.067u      0.017s      0.042w      1 calls
| SAD Guess                 :      0.067u      0.017s      0.040w      1 calls
HF: Form G                  :      0.000u      0.000s      0.001w     12 calls
| JK: D                     :      0.000u      0.000s      0.000w     12 calls
| JK: USO2AO                :      0.000u      0.000s      0.000w     12 calls
| JK: JK                    :      0.000u      0.000s      0.000w     12 calls
| | PK computes JK          :      0.000u      0.000s      0.000w     12 calls
| JK: AO2USO                :      0.000u      0.000s      0.000w     12 calls
HF: Form F                  :      0.000u      0.000s      0.000w     12 calls
HF: DIIS                    :      0.000u      0.000s      0.002w     12 calls
| DIISManager::add_entry    :      0.000u      0.000s      0.001w     11 calls
| DIISManager::extrapolate  :      0.000u      0.000s      0.001w     10 calls
| | bMatrix setup           :      0.000u      0.000s      0.000w     10 calls
| | bMatrix pseudoinverse   :      0.000u      0.000s      0.000w     10 calls
| | New vector              :      0.000u      0.000s      0.000w     10 calls
HF: Form C                  :      0.000u      0.000s      0.000w     12 calls
HF: Form D                  :      0.000u      0.000s      0.000w     12 calls

***********************************************************

Host: Ruhees-MacBook-Pro.local

Timers On : Wed Jan  9 14:03:56 2019
Timers Off: Wed Jan  9 14:03:57 2019

Wall Time:        0.83 seconds

Total PK formation time     :      0.017u      0.000s      0.013w      1 calls
HF: Form H                  :      0.000u      0.000s      0.001w      1 calls
HF: Form S/X                :      0.000u      0.000s      0.000w      1 calls
HF: Guess                   :      0.083u      0.017s      0.048w      1 calls
SAD Guess                   :      0.067u      0.017s      0.046w      1 calls
HF: Form G                  :      0.000u      0.000s      0.001w     12 calls
JK: D                       :      0.000u      0.000s      0.000w     12 calls
JK: USO2AO                  :      0.000u      0.000s      0.000w     12 calls
JK: JK                      :      0.000u      0.000s      0.000w     12 calls
PK computes JK              :      0.000u      0.000s      0.000w     12 calls
JK: AO2USO                  :      0.000u      0.000s      0.000w     12 calls
HF: Form F                  :      0.000u      0.000s      0.000w     12 calls
HF: DIIS                    :      0.000u      0.000s      0.003w     12 calls
DIISManager::add_entry      :      0.000u      0.000s      0.001w     11 calls
DIISManager::extrapolate    :      0.000u      0.000s      0.001w     10 calls
bMatrix setup               :      0.000u      0.000s      0.001w     10 calls
bMatrix pseudoinverse       :      0.000u      0.000s      0.000w     10 calls
New vector                  :      0.000u      0.000s      0.000w     10 calls
HF: Form C                  :      0.000u      0.000s      0.001w     12 calls
HF: Form D                  :      0.000u      0.000s      0.000w     12 calls

-----------------------------------------------------------
Total PK formation time     :      0.017u      0.000s      0.013w      1 calls
HF: Form H                  :      0.000u      0.000s      0.001w      1 calls
HF: Form S/X                :      0.000u      0.000s      0.000w      1 calls
HF: Guess                   :      0.083u      0.017s      0.048w      1 calls
| SAD Guess                 :      0.067u      0.017s      0.046w      1 calls
HF: Form G                  :      0.000u      0.000s      0.001w     12 calls
| JK: D                     :      0.000u      0.000s      0.000w     12 calls
| JK: USO2AO                :      0.000u      0.000s      0.000w     12 calls
| JK: JK                    :      0.000u      0.000s      0.000w     12 calls
| | PK computes JK          :      0.000u      0.000s      0.000w     12 calls
| JK: AO2USO                :      0.000u      0.000s      0.000w     12 calls
HF: Form F                  :      0.000u      0.000s      0.000w     12 calls
HF: DIIS                    :      0.000u      0.000s      0.003w     12 calls
| DIISManager::add_entry    :      0.000u      0.000s      0.001w     11 calls
| DIISManager::extrapolate  :      0.000u      0.000s      0.001w     10 calls
| | bMatrix setup           :      0.000u      0.000s      0.001w     10 calls
| | bMatrix pseudoinverse   :      0.000u      0.000s      0.000w     10 calls
| | New vector              :      0.000u      0.000s      0.000w     10 calls
HF: Form C                  :      0.000u      0.000s      0.001w     12 calls
HF: Form D                  :      0.000u      0.000s      0.000w     12 calls

***********************************************************

Host: Ruhees-MacBook-Pro.local

Timers On : Wed Jan  9 15:11:18 2019
Timers Off: Wed Jan  9 15:11:20 2019

Wall Time:        1.38 seconds

Total PK formation time     :      0.033u      0.000s      0.025w      1 calls
HF: Form H                  :      0.000u      0.000s      0.003w      1 calls
HF: Form S/X                :      0.000u      0.000s      0.005w      1 calls
HF: Guess                   :      0.083u      0.017s      0.062w      1 calls
SAD Guess                   :      0.083u      0.017s      0.060w      1 calls
HF: Form G                  :      0.000u      0.000s      0.001w     12 calls
JK: D                       :      0.000u      0.000s      0.000w     12 calls
JK: USO2AO                  :      0.000u      0.000s      0.000w     12 calls
JK: JK                      :      0.000u      0.000s      0.000w     12 calls
PK computes JK              :      0.000u      0.000s      0.000w     12 calls
JK: AO2USO                  :      0.000u      0.000s      0.000w     12 calls
HF: Form F                  :      0.000u      0.000s      0.000w     12 calls
HF: DIIS                    :      0.000u      0.000s      0.003w     12 calls
DIISManager::add_entry      :      0.000u      0.000s      0.001w     11 calls
DIISManager::extrapolate    :      0.000u      0.000s      0.001w     10 calls
bMatrix setup               :      0.000u      0.000s      0.000w     10 calls
bMatrix pseudoinverse       :      0.000u      0.000s      0.000w     10 calls
New vector                  :      0.000u      0.000s      0.000w     10 calls
HF: Form C                  :      0.000u      0.000s      0.000w     12 calls
HF: Form D                  :      0.000u      0.000s      0.000w     12 calls

-----------------------------------------------------------
Total PK formation time     :      0.033u      0.000s      0.025w      1 calls
HF: Form H                  :      0.000u      0.000s      0.003w      1 calls
HF: Form S/X                :      0.000u      0.000s      0.005w      1 calls
HF: Guess                   :      0.083u      0.017s      0.062w      1 calls
| SAD Guess                 :      0.083u      0.017s      0.060w      1 calls
HF: Form G                  :      0.000u      0.000s      0.001w     12 calls
| JK: D                     :      0.000u      0.000s      0.000w     12 calls
| JK: USO2AO                :      0.000u      0.000s      0.000w     12 calls
| JK: JK                    :      0.000u      0.000s      0.000w     12 calls
| | PK computes JK          :      0.000u      0.000s      0.000w     12 calls
| JK: AO2USO                :      0.000u      0.000s      0.000w     12 calls
HF: Form F                  :      0.000u      0.000s      0.000w     12 calls
HF: DIIS                    :      0.000u      0.000s      0.003w     12 calls
| DIISManager::add_entry    :      0.000u      0.000s      0.001w     11 calls
| DIISManager::extrapolate  :      0.000u      0.000s      0.001w     10 calls
| | bMatrix setup           :      0.000u      0.000s      0.000w     10 calls
| | bMatrix pseudoinverse   :      0.000u      0.000s      0.000w     10 calls
| | New vector              :      0.000u      0.000s      0.000w     10 calls
HF: Form C                  :      0.000u      0.000s      0.000w     12 calls
HF: Form D                  :      0.000u      0.000s      0.000w     12 calls

***********************************************************

Host: Ruhees-MacBook-Pro.local

Timers On : Wed Jan  9 15:11:35 2019
Timers Off: Wed Jan  9 15:11:35 2019

Wall Time:        0.86 seconds

Total PK formation time     :      0.033u      0.000s      0.012w      1 calls
HF: Form H                  :      0.000u      0.000s      0.001w      1 calls
HF: Form S/X                :      0.000u      0.000s      0.000w      1 calls
HF: Guess                   :      0.067u      0.000s      0.042w      1 calls
SAD Guess                   :      0.067u      0.000s      0.040w      1 calls
HF: Form G                  :      0.000u      0.000s      0.001w     12 calls
JK: D                       :      0.000u      0.000s      0.000w     12 calls
JK: USO2AO                  :      0.000u      0.000s      0.000w     12 calls
JK: JK                      :      0.000u      0.000s      0.000w     12 calls
PK computes JK              :      0.000u      0.000s      0.000w     12 calls
JK: AO2USO                  :      0.000u      0.000s      0.000w     12 calls
HF: Form F                  :      0.000u      0.000s      0.000w     12 calls
HF: DIIS                    :      0.000u      0.000s      0.003w     12 calls
DIISManager::add_entry      :      0.000u      0.000s      0.001w     11 calls
DIISManager::extrapolate    :      0.000u      0.000s      0.001w     10 calls
bMatrix setup               :      0.000u      0.000s      0.001w     10 calls
bMatrix pseudoinverse       :      0.000u      0.000s      0.000w     10 calls
New vector                  :      0.000u      0.000s      0.000w     10 calls
HF: Form C                  :      0.000u      0.000s      0.001w     12 calls
HF: Form D                  :      0.000u      0.000s      0.000w     12 calls

-----------------------------------------------------------
Total PK formation time     :      0.033u      0.000s      0.012w      1 calls
HF: Form H                  :      0.000u      0.000s      0.001w      1 calls
HF: Form S/X                :      0.000u      0.000s      0.000w      1 calls
HF: Guess                   :      0.067u      0.000s      0.042w      1 calls
| SAD Guess                 :      0.067u      0.000s      0.040w      1 calls
HF: Form G                  :      0.000u      0.000s      0.001w     12 calls
| JK: D                     :      0.000u      0.000s      0.000w     12 calls
| JK: USO2AO                :      0.000u      0.000s      0.000w     12 calls
| JK: JK                    :      0.000u      0.000s      0.000w     12 calls
| | PK computes JK          :      0.000u      0.000s      0.000w     12 calls
| JK: AO2USO                :      0.000u      0.000s      0.000w     12 calls
HF: Form F                  :      0.000u      0.000s      0.000w     12 calls
HF: DIIS                    :      0.000u      0.000s      0.003w     12 calls
| DIISManager::add_entry    :      0.000u      0.000s      0.001w     11 calls
| DIISManager::extrapolate  :      0.000u      0.000s      0.001w     10 calls
| | bMatrix setup           :      0.000u      0.000s      0.001w     10 calls
| | bMatrix pseudoinverse   :      0.000u      0.000s      0.000w     10 calls
| | New vector              :      0.000u      0.000s      0.000w     10 calls
HF: Form C                  :      0.000u      0.000s      0.001w     12 calls
HF: Form D                  :      0.000u      0.000s      0.000w     12 calls

***********************************************************

Host: Ruhees-MacBook-Pro.local

Timers On : Wed Jan  9 15:13:05 2019
Timers Off: Wed Jan  9 15:13:06 2019

Wall Time:        0.87 seconds

Total PK formation time     :      0.017u      0.000s      0.011w      1 calls
HF: Form H                  :      0.000u      0.017s      0.002w      1 calls
HF: Form S/X                :      0.000u      0.000s      0.000w      1 calls
HF: Guess                   :      0.083u      0.000s      0.051w      1 calls
SAD Guess                   :      0.083u      0.000s      0.050w      1 calls
HF: Form G                  :      0.000u      0.000s      0.001w     12 calls
JK: D                       :      0.000u      0.000s      0.000w     12 calls
JK: USO2AO                  :      0.000u      0.000s      0.000w     12 calls
JK: JK                      :      0.000u      0.000s      0.000w     12 calls
PK computes JK              :      0.000u      0.000s      0.000w     12 calls
JK: AO2USO                  :      0.000u      0.000s      0.000w     12 calls
HF: Form F                  :      0.000u      0.000s      0.000w     12 calls
HF: DIIS                    :      0.000u      0.000s      0.003w     12 calls
DIISManager::add_entry      :      0.000u      0.000s      0.001w     11 calls
DIISManager::extrapolate    :      0.000u      0.000s      0.001w     10 calls
bMatrix setup               :      0.000u      0.000s      0.001w     10 calls
bMatrix pseudoinverse       :      0.000u      0.000s      0.000w     10 calls
New vector                  :      0.000u      0.000s      0.000w     10 calls
HF: Form C                  :      0.000u      0.000s      0.001w     12 calls
HF: Form D                  :      0.000u      0.000s      0.000w     12 calls

-----------------------------------------------------------
Total PK formation time     :      0.017u      0.000s      0.011w      1 calls
HF: Form H                  :      0.000u      0.017s      0.002w      1 calls
HF: Form S/X                :      0.000u      0.000s      0.000w      1 calls
HF: Guess                   :      0.083u      0.000s      0.051w      1 calls
| SAD Guess                 :      0.083u      0.000s      0.050w      1 calls
HF: Form G                  :      0.000u      0.000s      0.001w     12 calls
| JK: D                     :      0.000u      0.000s      0.000w     12 calls
| JK: USO2AO                :      0.000u      0.000s      0.000w     12 calls
| JK: JK                    :      0.000u      0.000s      0.000w     12 calls
| | PK computes JK          :      0.000u      0.000s      0.000w     12 calls
| JK: AO2USO                :      0.000u      0.000s      0.000w     12 calls
HF: Form F                  :      0.000u      0.000s      0.000w     12 calls
HF: DIIS                    :      0.000u      0.000s      0.003w     12 calls
| DIISManager::add_entry    :      0.000u      0.000s      0.001w     11 calls
| DIISManager::extrapolate  :      0.000u      0.000s      0.001w     10 calls
| | bMatrix setup           :      0.000u      0.000s      0.001w     10 calls
| | bMatrix pseudoinverse   :      0.000u      0.000s      0.000w     10 calls
| | New vector              :      0.000u      0.000s      0.000w     10 calls
HF: Form C                  :      0.000u      0.000s      0.001w     12 calls
HF: Form D                  :      0.000u      0.000s      0.000w     12 calls

***********************************************************

Host: Ruhees-MacBook-Pro.local

Timers On : Wed Jan  9 15:13:51 2019
Timers Off: Wed Jan  9 15:13:52 2019

Wall Time:        0.82 seconds

Total PK formation time     :      0.017u      0.000s      0.012w      1 calls
HF: Form H                  :      0.000u      0.000s      0.001w      1 calls
HF: Form S/X                :      0.000u      0.000s      0.000w      1 calls
HF: Guess                   :      0.067u      0.000s      0.040w      1 calls
SAD Guess                   :      0.067u      0.000s      0.038w      1 calls
HF: Form G                  :      0.000u      0.000s      0.000w     12 calls
JK: D                       :      0.000u      0.000s      0.000w     12 calls
JK: USO2AO                  :      0.000u      0.000s      0.000w     12 calls
JK: JK                      :      0.000u      0.000s      0.000w     12 calls
PK computes JK              :      0.000u      0.000s      0.000w     12 calls
JK: AO2USO                  :      0.000u      0.000s      0.000w     12 calls
HF: Form F                  :      0.000u      0.000s      0.000w     12 calls
HF: DIIS                    :      0.000u      0.000s      0.002w     12 calls
DIISManager::add_entry      :      0.000u      0.000s      0.001w     11 calls
DIISManager::extrapolate    :      0.000u      0.000s      0.001w     10 calls
bMatrix setup               :      0.000u      0.000s      0.000w     10 calls
bMatrix pseudoinverse       :      0.000u      0.000s      0.000w     10 calls
New vector                  :      0.000u      0.000s      0.000w     10 calls
HF: Form C                  :      0.000u      0.000s      0.000w     12 calls
HF: Form D                  :      0.000u      0.000s      0.000w     12 calls

-----------------------------------------------------------
Total PK formation time     :      0.017u      0.000s      0.012w      1 calls
HF: Form H                  :      0.000u      0.000s      0.001w      1 calls
HF: Form S/X                :      0.000u      0.000s      0.000w      1 calls
HF: Guess                   :      0.067u      0.000s      0.040w      1 calls
| SAD Guess                 :      0.067u      0.000s      0.038w      1 calls
HF: Form G                  :      0.000u      0.000s      0.000w     12 calls
| JK: D                     :      0.000u      0.000s      0.000w     12 calls
| JK: USO2AO                :      0.000u      0.000s      0.000w     12 calls
| JK: JK                    :      0.000u      0.000s      0.000w     12 calls
| | PK computes JK          :      0.000u      0.000s      0.000w     12 calls
| JK: AO2USO                :      0.000u      0.000s      0.000w     12 calls
HF: Form F                  :      0.000u      0.000s      0.000w     12 calls
HF: DIIS                    :      0.000u      0.000s      0.002w     12 calls
| DIISManager::add_entry    :      0.000u      0.000s      0.001w     11 calls
| DIISManager::extrapolate  :      0.000u      0.000s      0.001w     10 calls
| | bMatrix setup           :      0.000u      0.000s      0.000w     10 calls
| | bMatrix pseudoinverse   :      0.000u      0.000s      0.000w     10 calls
| | New vector              :      0.000u      0.000s      0.000w     10 calls
HF: Form C                  :      0.000u      0.000s      0.000w     12 calls
HF: Form D                  :      0.000u      0.000s      0.000w     12 calls

***********************************************************

Host: Ruhees-MacBook-Pro.local

Timers On : Wed Jan  9 15:16:04 2019
Timers Off: Wed Jan  9 15:16:05 2019

Wall Time:        0.83 seconds

Total PK formation time     :      0.033u      0.000s      0.012w      1 calls
HF: Form H                  :      0.000u      0.000s      0.001w      1 calls
HF: Form S/X                :      0.000u      0.000s      0.000w      1 calls
HF: Guess                   :      0.067u      0.000s      0.043w      1 calls
SAD Guess                   :      0.067u      0.000s      0.041w      1 calls
HF: Form G                  :      0.000u      0.000s      0.001w     12 calls
JK: D                       :      0.000u      0.000s      0.000w     12 calls
JK: USO2AO                  :      0.000u      0.000s      0.000w     12 calls
JK: JK                      :      0.000u      0.000s      0.000w     12 calls
PK computes JK              :      0.000u      0.000s      0.000w     12 calls
JK: AO2USO                  :      0.000u      0.000s      0.000w     12 calls
HF: Form F                  :      0.000u      0.000s      0.000w     12 calls
HF: DIIS                    :      0.000u      0.017s      0.002w     12 calls
DIISManager::add_entry      :      0.000u      0.000s      0.001w     11 calls
DIISManager::extrapolate    :      0.000u      0.017s      0.001w     10 calls
bMatrix setup               :      0.000u      0.017s      0.000w     10 calls
bMatrix pseudoinverse       :      0.000u      0.000s      0.000w     10 calls
New vector                  :      0.000u      0.000s      0.000w     10 calls
HF: Form C                  :      0.000u      0.000s      0.000w     12 calls
HF: Form D                  :      0.000u      0.000s      0.000w     12 calls

-----------------------------------------------------------
Total PK formation time     :      0.033u      0.000s      0.012w      1 calls
HF: Form H                  :      0.000u      0.000s      0.001w      1 calls
HF: Form S/X                :      0.000u      0.000s      0.000w      1 calls
HF: Guess                   :      0.067u      0.000s      0.043w      1 calls
| SAD Guess                 :      0.067u      0.000s      0.041w      1 calls
HF: Form G                  :      0.000u      0.000s      0.001w     12 calls
| JK: D                     :      0.000u      0.000s      0.000w     12 calls
| JK: USO2AO                :      0.000u      0.000s      0.000w     12 calls
| JK: JK                    :      0.000u      0.000s      0.000w     12 calls
| | PK computes JK          :      0.000u      0.000s      0.000w     12 calls
| JK: AO2USO                :      0.000u      0.000s      0.000w     12 calls
HF: Form F                  :      0.000u      0.000s      0.000w     12 calls
HF: DIIS                    :      0.000u      0.017s      0.002w     12 calls
| DIISManager::add_entry    :      0.000u      0.000s      0.001w     11 calls
| DIISManager::extrapolate  :      0.000u      0.017s      0.001w     10 calls
| | bMatrix setup           :      0.000u      0.017s      0.000w     10 calls
| | bMatrix pseudoinverse   :      0.000u      0.000s      0.000w     10 calls
| | New vector              :      0.000u      0.000s      0.000w     10 calls
HF: Form C                  :      0.000u      0.000s      0.000w     12 calls
HF: Form D                  :      0.000u      0.000s      0.000w     12 calls

[...]
HF: Form C                          :      0.000u      0.000s      0.000w     12 calls

**************************************************************************************

Host: Ruhees-MacBook-Pro.local

Timers On : Wed Aug 21 18:21:49 2019
Timers Off: Wed Aug 21 18:21:50 2019

Wall Time:        0.75 seconds

                                                       Time (seconds)
Module                                       User      System        Wall        Calls
Total PK formation time             :      0.017u      0.000s      0.010w      1 calls
HF: Form core H                     :      0.000u      0.000s      0.002w      1 calls
HF: Form S/X                        :      0.000u      0.000s      0.000w      1 calls
HF: Guess                           :      0.050u      0.017s      0.036w      1 calls
SAD Guess                           :      0.050u      0.017s      0.034w      1 calls
HF: Form G                          :      0.000u      0.000s      0.000w     13 calls
JK: D                               :      0.000u      0.000s      0.000w     13 calls
JK: USO2AO                          :      0.000u      0.000s      0.000w     13 calls
JK: JK                              :      0.000u      0.000s      0.000w     13 calls
PK computes JK                      :      0.000u      0.000s      0.000w     13 calls
JK: AO2USO                          :      0.000u      0.000s      0.000w     13 calls
HF: Form F                          :      0.000u      0.000s      0.000w     13 calls
HF: Form D                          :      0.000u      0.000s      0.000w     13 calls
HF: DIIS                            :      0.000u      0.000s      0.006w     12 calls
DIISManager::add_entry              :      0.000u      0.000s      0.001w     12 calls
DIISManager::extrapolate            :      0.000u      0.000s      0.001w     12 calls
bMatrix setup                       :      0.000u      0.000s      0.000w     12 calls
bMatrix pseudoinverse               :      0.000u      0.000s      0.000w     12 calls
New vector                          :      0.000u      0.000s      0.000w     12 calls
HF: Form C                          :      0.000u      0.000s      0.000w     12 calls

--------------------------------------------------------------------------------------
Total PK formation time             :      0.017u      0.000s      0.010w      1 calls
HF: Form core H                     :      0.000u      0.000s      0.002w      1 calls
HF: Form S/X                        :      0.000u      0.000s      0.000w      1 calls
HF: Guess                           :      0.050u      0.017s      0.036w      1 calls
| SAD Guess                         :      0.050u      0.017s      0.034w      1 calls
HF: Form G                          :      0.000u      0.000s      0.000w     13 calls
| JK: D                             :      0.000u      0.000s      0.000w     13 calls
| JK: USO2AO                        :      0.000u      0.000s      0.000w     13 calls
| JK: JK                            :      0.000u      0.000s      0.000w     13 calls
| | PK computes JK                  :      0.000u      0.000s      0.000w     13 calls
| JK: AO2USO                        :      0.000u      0.000s      0.000w     13 calls
HF: Form F                          :      0.000u      0.000s      0.000w     13 calls
HF: Form D                          :      0.000u      0.000s      0.000w     13 calls
HF: DIIS                            :      0.000u      0.000s      0.006w     12 calls
| DIISManager::add_entry            :      0.000u      0.000s      0.001w     12 calls
| DIISManager::extrapolate          :      0.000u      0.000s      0.001w     12 calls
| | bMatrix setup                   :      0.000u      0.000s      0.000w     12 calls
| | bMatrix pseudoinverse           :      0.000u      0.000s      0.000w     12 calls
| | New vector                      :      0.000u      0.000s      0.000w     12 calls
HF: Form C                          :      0.000u      0.000s      0.000w     12 calls

**************************************************************************************

Host: Ruhees-MacBook-Pro.local

Timers On : Wed Aug 21 18:22:18 2019
Timers Off: Wed Aug 21 18:22:19 2019

Wall Time:        0.69 seconds

                                                       Time (seconds)
Module                                       User      System        Wall        Calls
Total PK formation time             :      0.017u      0.000s      0.010w      1 calls
HF: Form core H                     :      0.000u      0.000s      0.002w      1 calls
HF: Form S/X                        :      0.000u      0.000s      0.000w      1 calls
HF: Guess                           :      0.050u      0.000s      0.035w      1 calls
SAD Guess                           :      0.050u      0.000s      0.034w      1 calls
HF: Form G                          :      0.000u      0.000s      0.000w     13 calls
JK: D                               :      0.000u      0.000s      0.000w     13 calls
JK: USO2AO                          :      0.000u      0.000s      0.000w     13 calls
JK: JK                              :      0.000u      0.000s      0.000w     13 calls
PK computes JK                      :      0.000u      0.000s      0.000w     13 calls
JK: AO2USO                          :      0.000u      0.000s      0.000w     13 calls
HF: Form F                          :      0.000u      0.000s      0.000w     13 calls
HF: Form D                          :      0.000u      0.000s      0.000w     13 calls
HF: DIIS                            :      0.000u      0.017s      0.005w     12 calls
DIISManager::add_entry              :      0.000u      0.017s      0.001w     12 calls
DIISManager::extrapolate            :      0.000u      0.000s      0.001w     12 calls
bMatrix setup                       :      0.000u      0.000s      0.000w     12 calls
bMatrix pseudoinverse               :      0.000u      0.000s      0.000w     12 calls
New vector                          :      0.000u      0.000s      0.000w     12 calls
HF: Form C                          :      0.000u      0.000s      0.000w     12 calls

--------------------------------------------------------------------------------------
Total PK formation time             :      0.017u      0.000s      0.010w      1 calls
HF: Form core H                     :      0.000u      0.000s      0.002w      1 calls
HF: Form S/X                        :      0.000u      0.000s      0.000w      1 calls
HF: Guess                           :      0.050u      0.000s      0.035w      1 calls
| SAD Guess                         :      0.050u      0.000s      0.034w      1 calls
HF: Form G                          :      0.000u      0.000s      0.000w     13 calls
| JK: D                             :      0.000u      0.000s      0.000w     13 calls
| JK: USO2AO                        :      0.000u      0.000s      0.000w     13 calls
| JK: JK                            :      0.000u      0.000s      0.000w     13 calls
| | PK computes JK                  :      0.000u      0.000s      0.000w     13 calls
| JK: AO2USO                        :      0.000u      0.000s      0.000w     13 calls
HF: Form F                          :      0.000u      0.000s      0.000w     13 calls
HF: Form D                          :      0.000u      0.000s      0.000w     13 calls
HF: DIIS                            :      0.000u      0.017s      0.005w     12 calls
| DIISManager::add_entry            :      0.000u      0.017s      0.001w     12 calls
| DIISManager::extrapolate          :      0.000u      0.000s      0.001w     12 calls
| | bMatrix setup                   :      0.000u      0.000s      0.000w     12 calls
| | bMatrix pseudoinverse           :      0.000u      0.000s      0.000w     12 calls
| | New vector                      :      0.000u      0.000s      0.000w     12 calls
HF: Form C                          :      0.000u      0.000s      0.000w     12 calls

**************************************************************************************

Host: Ruhees-MacBook-Pro.local

Timers On : Wed Aug 21 18:23:03 2019
Timers Off: Wed Aug 21 18:23:04 2019

Wall Time:        0.70 seconds

                                                       Time (seconds)
Module                                       User      System        Wall        Calls
Total PK formation time             :      0.017u      0.000s      0.010w      1 calls
HF: Form core H                     :      0.000u      0.000s      0.001w      1 calls
HF: Form S/X                        :      0.000u      0.000s      0.000w      1 calls
HF: Guess                           :      0.033u      0.000s      0.030w      1 calls
SAD Guess                           :      0.033u      0.000s      0.029w      1 calls
HF: Form G                          :      0.000u      0.000s      0.000w     13 calls
JK: D                               :      0.000u      0.000s      0.000w     13 calls
JK: USO2AO                          :      0.000u      0.000s      0.000w     13 calls
JK: JK                              :      0.000u      0.000s      0.000w     13 calls
PK computes JK                      :      0.000u      0.000s      0.000w     13 calls
JK: AO2USO                          :      0.000u      0.000s      0.000w     13 calls
HF: Form F                          :      0.000u      0.000s      0.000w     13 calls
HF: Form D                          :      0.000u      0.000s      0.000w     13 calls
HF: DIIS                            :      0.000u      0.000s      0.006w     12 calls
DIISManager::add_entry              :      0.000u      0.000s      0.001w     12 calls
DIISManager::extrapolate            :      0.000u      0.000s      0.001w     12 calls
bMatrix setup                       :      0.000u      0.000s      0.000w     12 calls
bMatrix pseudoinverse               :      0.000u      0.000s      0.000w     12 calls
New vector                          :      0.000u      0.000s      0.000w     12 calls
HF: Form C                          :      0.017u      0.000s      0.000w     12 calls

--------------------------------------------------------------------------------------
Total PK formation time             :      0.017u      0.000s      0.010w      1 calls
HF: Form core H                     :      0.000u      0.000s      0.001w      1 calls
HF: Form S/X                        :      0.000u      0.000s      0.000w      1 calls
HF: Guess                           :      0.033u      0.000s      0.030w      1 calls
| SAD Guess                         :      0.033u      0.000s      0.029w      1 calls
HF: Form G                          :      0.000u      0.000s      0.000w     13 calls
| JK: D                             :      0.000u      0.000s      0.000w     13 calls
| JK: USO2AO                        :      0.000u      0.000s      0.000w     13 calls
| JK: JK                            :      0.000u      0.000s      0.000w     13 calls
| | PK computes JK                  :      0.000u      0.000s      0.000w     13 calls
| JK: AO2USO                        :      0.000u      0.000s      0.000w     13 calls
HF: Form F                          :      0.000u      0.000s      0.000w     13 calls
HF: Form D                          :      0.000u      0.000s      0.000w     13 calls
HF: DIIS                            :      0.000u      0.000s      0.006w     12 calls
| DIISManager::add_entry            :      0.000u      0.000s      0.001w     12 calls
| DIISManager::extrapolate          :      0.000u      0.000s      0.001w     12 calls
| | bMatrix setup                   :      0.000u      0.000s      0.000w     12 calls
| | bMatrix pseudoinverse           :      0.000u      0.000s      0.000w     12 calls
| | New vector                      :      0.000u      0.000s      0.000w     12 calls
HF: Form C                          :      0.017u      0.000s      0.000w     12 calls

**************************************************************************************

Host: Ruhees-MacBook-Pro.local

Timers On : Wed Aug 21 18:23:12 2019
Timers Off: Wed Aug 21 18:23:13 2019

Wall Time:        0.81 seconds

                                                       Time (seconds)
Module                                       User      System        Wall        Calls
Total PK formation time             :      0.017u      0.000s      0.011w      1 calls
HF: Form core H                     :      0.000u      0.000s      0.001w      1 calls
HF: Form S/X                        :      0.000u      0.000s      0.000w      1 calls
HF: Guess                           :      0.050u      0.000s      0.029w      1 calls
SAD Guess                           :      0.050u      0.000s      0.028w      1 calls
HF: Form G                          :      0.000u      0.000s      0.000w     13 calls
JK: D                               :      0.000u      0.000s      0.000w     13 calls
JK: USO2AO                          :      0.000u      0.000s      0.000w     13 calls
JK: JK                              :      0.000u      0.000s      0.000w     13 calls
PK computes JK                      :      0.000u      0.000s      0.000w     13 calls
JK: AO2USO                          :      0.000u      0.000s      0.000w     13 calls
HF: Form F                          :      0.000u      0.000s      0.000w     13 calls
HF: Form D                          :      0.000u      0.000s      0.000w     13 calls
HF: DIIS                            :      0.033u      0.000s      0.005w     12 calls
DIISManager::add_entry              :      0.000u      0.000s      0.001w     12 calls
DIISManager::extrapolate            :      0.000u      0.000s      0.001w     12 calls
bMatrix setup                       :      0.000u      0.000s      0.000w     12 calls
bMatrix pseudoinverse               :      0.000u      0.000s      0.000w     12 calls
New vector                          :      0.000u      0.000s      0.000w     12 calls
HF: Form C                          :      0.000u      0.000s      0.000w     12 calls

--------------------------------------------------------------------------------------
Total PK formation time             :      0.017u      0.000s      0.011w      1 calls
HF: Form core H                     :      0.000u      0.000s      0.001w      1 calls
HF: Form S/X                        :      0.000u      0.000s      0.000w      1 calls
HF: Guess                           :      0.050u      0.000s      0.029w      1 calls
| SAD Guess                         :      0.050u      0.000s      0.028w      1 calls
HF: Form G                          :      0.000u      0.000s      0.000w     13 calls
| JK: D                             :      0.000u      0.000s      0.000w     13 calls
| JK: USO2AO                        :      0.000u      0.000s      0.000w     13 calls
| JK: JK                            :      0.000u      0.000s      0.000w     13 calls
| | PK computes JK                  :      0.000u      0.000s      0.000w     13 calls
| JK: AO2USO                        :      0.000u      0.000s      0.000w     13 calls
HF: Form F                          :      0.000u      0.000s      0.000w     13 calls
HF: Form D                          :      0.000u      0.000s      0.000w     13 calls
HF: DIIS                            :      0.033u      0.000s      0.005w     12 calls
| DIISManager::add_entry            :      0.000u      0.000s      0.001w     12 calls
| DIISManager::extrapolate          :      0.000u      0.000s      0.001w     12 calls
| | bMatrix setup                   :      0.000u      0.000s      0.000w     12 calls
| | bMatrix pseudoinverse           :      0.000u      0.000s      0.000w     12 calls
| | New vector                      :      0.000u      0.000s      0.000w     12 calls
HF: Form C                          :      0.000u      0.000s      0.000w     12 calls

**************************************************************************************

Host: Ruhees-MacBook-Pro.local

Timers On : Wed Aug 21 18:23:25 2019
Timers Off: Wed Aug 21 18:23:30 2019

Wall Time:        4.45 seconds

                                                       Time (seconds)
Module                                       User      System        Wall        Calls
Total PK formation time             :      0.017u      0.000s      0.010w      1 calls
HF: Form core H                     :      0.000u      0.000s      0.001w      1 calls
HF: Form S/X                        :      0.000u      0.000s      0.000w      1 calls
HF: Guess                           :      0.050u      0.000s      0.034w      1 calls
SAD Guess                           :      0.050u      0.000s      0.032w      1 calls
HF: Form G                          :      0.000u      0.000s      0.000w     13 calls
JK: D                               :      0.000u      0.000s      0.000w     13 calls
JK: USO2AO                          :      0.000u      0.000s      0.000w     13 calls
JK: JK                              :      0.000u      0.000s      0.000w     13 calls
PK computes JK                      :      0.000u      0.000s      0.000w     13 calls
JK: AO2USO                          :      0.000u      0.000s      0.000w     13 calls
HF: Form F                          :      0.000u      0.000s      0.000w     13 calls
HF: Form D                          :      0.000u      0.000s      0.000w     13 calls
HF: DIIS                            :      0.033u      0.000s      0.005w     12 calls
DIISManager::add_entry              :      0.000u      0.000s      0.001w     12 calls
DIISManager::extrapolate            :      0.017u      0.000s      0.001w     12 calls
bMatrix setup                       :      0.017u      0.000s      0.000w     12 calls
bMatrix pseudoinverse               :      0.000u      0.000s      0.000w     12 calls
New vector                          :      0.000u      0.000s      0.000w     12 calls
HF: Form C                          :      0.000u      0.000s      0.000w     12 calls

--------------------------------------------------------------------------------------
Total PK formation time             :      0.017u      0.000s      0.010w      1 calls
HF: Form core H                     :      0.000u      0.000s      0.001w      1 calls
HF: Form S/X                        :      0.000u      0.000s      0.000w      1 calls
HF: Guess                           :      0.050u      0.000s      0.034w      1 calls
| SAD Guess                         :      0.050u      0.000s      0.032w      1 calls
HF: Form G                          :      0.000u      0.000s      0.000w     13 calls
| JK: D                             :      0.000u      0.000s      0.000w     13 calls
| JK: USO2AO                        :      0.000u      0.000s      0.000w     13 calls
| JK: JK                            :      0.000u      0.000s      0.000w     13 calls
| | PK computes JK                  :      0.000u      0.000s      0.000w     13 calls
| JK: AO2USO                        :      0.000u      0.000s      0.000w     13 calls
HF: Form F                          :      0.000u      0.000s      0.000w     13 calls
HF: Form D                          :      0.000u      0.000s      0.000w     13 calls
HF: DIIS                            :      0.033u      0.000s      0.005w     12 calls
| DIISManager::add_entry            :      0.000u      0.000s      0.001w     12 calls
| DIISManager::extrapolate          :      0.017u      0.000s      0.001w     12 calls
| | bMatrix setup                   :      0.017u      0.000s      0.000w     12 calls
| | bMatrix pseudoinverse           :      0.000u      0.000s      0.000w     12 calls
| | New vector                      :      0.000u      0.000s      0.000w     12 calls
HF: Form C                          :      0.000u      0.000s      0.000w     12 calls

**************************************************************************************
